--
-- GRID SECTION
--
-- Generated from MRST PEBI grid (Eagle West Field)
--

SPECGRID
  41 41 12 1 F /

COORD
  0.00 0.00 2000.00 0.00 0.00 2120.00
  250.00 0.00 2000.00 250.00 0.00 2120.00
  500.00 0.00 2000.00 500.00 0.00 2120.00
  750.00 0.00 2000.00 750.00 0.00 2120.00
  1000.00 0.00 2000.00 1000.00 0.00 2120.00
  1250.00 0.00 2000.00 1250.00 0.00 2120.00
  1500.00 0.00 2000.00 1500.00 0.00 2120.00
  1750.00 0.00 2000.00 1750.00 0.00 2120.00
  2000.00 0.00 2000.00 2000.00 0.00 2120.00
  2250.00 0.00 2000.00 2250.00 0.00 2120.00
  2500.00 0.00 2000.00 2500.00 0.00 2120.00
  2750.00 0.00 2000.00 2750.00 0.00 2120.00
  3000.00 0.00 2000.00 3000.00 0.00 2120.00
  3250.00 0.00 2000.00 3250.00 0.00 2120.00
  3500.00 0.00 2000.00 3500.00 0.00 2120.00
  3750.00 0.00 2000.00 3750.00 0.00 2120.00
  4000.00 0.00 2000.00 4000.00 0.00 2120.00
  4250.00 0.00 2000.00 4250.00 0.00 2120.00
  4500.00 0.00 2000.00 4500.00 0.00 2120.00
  4750.00 0.00 2000.00 4750.00 0.00 2120.00
  5000.00 0.00 2000.00 5000.00 0.00 2120.00
  5250.00 0.00 2000.00 5250.00 0.00 2120.00
  5500.00 0.00 2000.00 5500.00 0.00 2120.00
  5750.00 0.00 2000.00 5750.00 0.00 2120.00
  6000.00 0.00 2000.00 6000.00 0.00 2120.00
  6250.00 0.00 2000.00 6250.00 0.00 2120.00
  6500.00 0.00 2000.00 6500.00 0.00 2120.00
  6750.00 0.00 2000.00 6750.00 0.00 2120.00
  7000.00 0.00 2000.00 7000.00 0.00 2120.00
  7250.00 0.00 2000.00 7250.00 0.00 2120.00
  7500.00 0.00 2000.00 7500.00 0.00 2120.00
  7750.00 0.00 2000.00 7750.00 0.00 2120.00
  8000.00 0.00 2000.00 8000.00 0.00 2120.00
  8250.00 0.00 2000.00 8250.00 0.00 2120.00
  8500.00 0.00 2000.00 8500.00 0.00 2120.00
  8750.00 0.00 2000.00 8750.00 0.00 2120.00
  9000.00 0.00 2000.00 9000.00 0.00 2120.00
  9250.00 0.00 2000.00 9250.00 0.00 2120.00
  9500.00 0.00 2000.00 9500.00 0.00 2120.00
  9750.00 0.00 2000.00 9750.00 0.00 2120.00
  10000.00 0.00 2000.00 10000.00 0.00 2120.00
  10250.00 0.00 2000.00 10250.00 0.00 2120.00
  0.00 250.00 2000.00 0.00 250.00 2120.00
  250.00 250.00 2000.00 250.00 250.00 2120.00
  500.00 250.00 2000.00 500.00 250.00 2120.00
  750.00 250.00 2000.00 750.00 250.00 2120.00
  1000.00 250.00 2000.00 1000.00 250.00 2120.00
  1250.00 250.00 2000.00 1250.00 250.00 2120.00
  1500.00 250.00 2000.00 1500.00 250.00 2120.00
  1750.00 250.00 2000.00 1750.00 250.00 2120.00
  2000.00 250.00 2000.00 2000.00 250.00 2120.00
  2250.00 250.00 2000.00 2250.00 250.00 2120.00
  2500.00 250.00 2000.00 2500.00 250.00 2120.00
  2750.00 250.00 2000.00 2750.00 250.00 2120.00
  3000.00 250.00 2000.00 3000.00 250.00 2120.00
  3250.00 250.00 2000.00 3250.00 250.00 2120.00
  3500.00 250.00 2000.00 3500.00 250.00 2120.00
  3750.00 250.00 2000.00 3750.00 250.00 2120.00
  4000.00 250.00 2000.00 4000.00 250.00 2120.00
  4250.00 250.00 2000.00 4250.00 250.00 2120.00
  4500.00 250.00 2000.00 4500.00 250.00 2120.00
  4750.00 250.00 2000.00 4750.00 250.00 2120.00
  5000.00 250.00 2000.00 5000.00 250.00 2120.00
  5250.00 250.00 2000.00 5250.00 250.00 2120.00
  5500.00 250.00 2000.00 5500.00 250.00 2120.00
  5750.00 250.00 2000.00 5750.00 250.00 2120.00
  6000.00 250.00 2000.00 6000.00 250.00 2120.00
  6250.00 250.00 2000.00 6250.00 250.00 2120.00
  6500.00 250.00 2000.00 6500.00 250.00 2120.00
  6750.00 250.00 2000.00 6750.00 250.00 2120.00
  7000.00 250.00 2000.00 7000.00 250.00 2120.00
  7250.00 250.00 2000.00 7250.00 250.00 2120.00
  7500.00 250.00 2000.00 7500.00 250.00 2120.00
  7750.00 250.00 2000.00 7750.00 250.00 2120.00
  8000.00 250.00 2000.00 8000.00 250.00 2120.00
  8250.00 250.00 2000.00 8250.00 250.00 2120.00
  8500.00 250.00 2000.00 8500.00 250.00 2120.00
  8750.00 250.00 2000.00 8750.00 250.00 2120.00
  9000.00 250.00 2000.00 9000.00 250.00 2120.00
  9250.00 250.00 2000.00 9250.00 250.00 2120.00
  9500.00 250.00 2000.00 9500.00 250.00 2120.00
  9750.00 250.00 2000.00 9750.00 250.00 2120.00
  10000.00 250.00 2000.00 10000.00 250.00 2120.00
  10250.00 250.00 2000.00 10250.00 250.00 2120.00
  0.00 500.00 2000.00 0.00 500.00 2120.00
  250.00 500.00 2000.00 250.00 500.00 2120.00
  500.00 500.00 2000.00 500.00 500.00 2120.00
  750.00 500.00 2000.00 750.00 500.00 2120.00
  1000.00 500.00 2000.00 1000.00 500.00 2120.00
  1250.00 500.00 2000.00 1250.00 500.00 2120.00
  1500.00 500.00 2000.00 1500.00 500.00 2120.00
  1750.00 500.00 2000.00 1750.00 500.00 2120.00
  2000.00 500.00 2000.00 2000.00 500.00 2120.00
  2250.00 500.00 2000.00 2250.00 500.00 2120.00
  2500.00 500.00 2000.00 2500.00 500.00 2120.00
  2750.00 500.00 2000.00 2750.00 500.00 2120.00
  3000.00 500.00 2000.00 3000.00 500.00 2120.00
  3250.00 500.00 2000.00 3250.00 500.00 2120.00
  3500.00 500.00 2000.00 3500.00 500.00 2120.00
  3750.00 500.00 2000.00 3750.00 500.00 2120.00
  4000.00 500.00 2000.00 4000.00 500.00 2120.00
  4250.00 500.00 2000.00 4250.00 500.00 2120.00
  4500.00 500.00 2000.00 4500.00 500.00 2120.00
  4750.00 500.00 2000.00 4750.00 500.00 2120.00
  5000.00 500.00 2000.00 5000.00 500.00 2120.00
  5250.00 500.00 2000.00 5250.00 500.00 2120.00
  5500.00 500.00 2000.00 5500.00 500.00 2120.00
  5750.00 500.00 2000.00 5750.00 500.00 2120.00
  6000.00 500.00 2000.00 6000.00 500.00 2120.00
  6250.00 500.00 2000.00 6250.00 500.00 2120.00
  6500.00 500.00 2000.00 6500.00 500.00 2120.00
  6750.00 500.00 2000.00 6750.00 500.00 2120.00
  7000.00 500.00 2000.00 7000.00 500.00 2120.00
  7250.00 500.00 2000.00 7250.00 500.00 2120.00
  7500.00 500.00 2000.00 7500.00 500.00 2120.00
  7750.00 500.00 2000.00 7750.00 500.00 2120.00
  8000.00 500.00 2000.00 8000.00 500.00 2120.00
  8250.00 500.00 2000.00 8250.00 500.00 2120.00
  8500.00 500.00 2000.00 8500.00 500.00 2120.00
  8750.00 500.00 2000.00 8750.00 500.00 2120.00
  9000.00 500.00 2000.00 9000.00 500.00 2120.00
  9250.00 500.00 2000.00 9250.00 500.00 2120.00
  9500.00 500.00 2000.00 9500.00 500.00 2120.00
  9750.00 500.00 2000.00 9750.00 500.00 2120.00
  10000.00 500.00 2000.00 10000.00 500.00 2120.00
  10250.00 500.00 2000.00 10250.00 500.00 2120.00
  0.00 750.00 2000.00 0.00 750.00 2120.00
  250.00 750.00 2000.00 250.00 750.00 2120.00
  500.00 750.00 2000.00 500.00 750.00 2120.00
  750.00 750.00 2000.00 750.00 750.00 2120.00
  1000.00 750.00 2000.00 1000.00 750.00 2120.00
  1250.00 750.00 2000.00 1250.00 750.00 2120.00
  1500.00 750.00 2000.00 1500.00 750.00 2120.00
  1750.00 750.00 2000.00 1750.00 750.00 2120.00
  2000.00 750.00 2000.00 2000.00 750.00 2120.00
  2250.00 750.00 2000.00 2250.00 750.00 2120.00
  2500.00 750.00 2000.00 2500.00 750.00 2120.00
  2750.00 750.00 2000.00 2750.00 750.00 2120.00
  3000.00 750.00 2000.00 3000.00 750.00 2120.00
  3250.00 750.00 2000.00 3250.00 750.00 2120.00
  3500.00 750.00 2000.00 3500.00 750.00 2120.00
  3750.00 750.00 2000.00 3750.00 750.00 2120.00
  4000.00 750.00 2000.00 4000.00 750.00 2120.00
  4250.00 750.00 2000.00 4250.00 750.00 2120.00
  4500.00 750.00 2000.00 4500.00 750.00 2120.00
  4750.00 750.00 2000.00 4750.00 750.00 2120.00
  5000.00 750.00 2000.00 5000.00 750.00 2120.00
  5250.00 750.00 2000.00 5250.00 750.00 2120.00
  5500.00 750.00 2000.00 5500.00 750.00 2120.00
  5750.00 750.00 2000.00 5750.00 750.00 2120.00
  6000.00 750.00 2000.00 6000.00 750.00 2120.00
  6250.00 750.00 2000.00 6250.00 750.00 2120.00
  6500.00 750.00 2000.00 6500.00 750.00 2120.00
  6750.00 750.00 2000.00 6750.00 750.00 2120.00
  7000.00 750.00 2000.00 7000.00 750.00 2120.00
  7250.00 750.00 2000.00 7250.00 750.00 2120.00
  7500.00 750.00 2000.00 7500.00 750.00 2120.00
  7750.00 750.00 2000.00 7750.00 750.00 2120.00
  8000.00 750.00 2000.00 8000.00 750.00 2120.00
  8250.00 750.00 2000.00 8250.00 750.00 2120.00
  8500.00 750.00 2000.00 8500.00 750.00 2120.00
  8750.00 750.00 2000.00 8750.00 750.00 2120.00
  9000.00 750.00 2000.00 9000.00 750.00 2120.00
  9250.00 750.00 2000.00 9250.00 750.00 2120.00
  9500.00 750.00 2000.00 9500.00 750.00 2120.00
  9750.00 750.00 2000.00 9750.00 750.00 2120.00
  10000.00 750.00 2000.00 10000.00 750.00 2120.00
  10250.00 750.00 2000.00 10250.00 750.00 2120.00
  0.00 1000.00 2000.00 0.00 1000.00 2120.00
  250.00 1000.00 2000.00 250.00 1000.00 2120.00
  500.00 1000.00 2000.00 500.00 1000.00 2120.00
  750.00 1000.00 2000.00 750.00 1000.00 2120.00
  1000.00 1000.00 2000.00 1000.00 1000.00 2120.00
  1250.00 1000.00 2000.00 1250.00 1000.00 2120.00
  1500.00 1000.00 2000.00 1500.00 1000.00 2120.00
  1750.00 1000.00 2000.00 1750.00 1000.00 2120.00
  2000.00 1000.00 2000.00 2000.00 1000.00 2120.00
  2250.00 1000.00 2000.00 2250.00 1000.00 2120.00
  2500.00 1000.00 2000.00 2500.00 1000.00 2120.00
  2750.00 1000.00 2000.00 2750.00 1000.00 2120.00
  3000.00 1000.00 2000.00 3000.00 1000.00 2120.00
  3250.00 1000.00 2000.00 3250.00 1000.00 2120.00
  3500.00 1000.00 2000.00 3500.00 1000.00 2120.00
  3750.00 1000.00 2000.00 3750.00 1000.00 2120.00
  4000.00 1000.00 2000.00 4000.00 1000.00 2120.00
  4250.00 1000.00 2000.00 4250.00 1000.00 2120.00
  4500.00 1000.00 2000.00 4500.00 1000.00 2120.00
  4750.00 1000.00 2000.00 4750.00 1000.00 2120.00
  5000.00 1000.00 2000.00 5000.00 1000.00 2120.00
  5250.00 1000.00 2000.00 5250.00 1000.00 2120.00
  5500.00 1000.00 2000.00 5500.00 1000.00 2120.00
  5750.00 1000.00 2000.00 5750.00 1000.00 2120.00
  6000.00 1000.00 2000.00 6000.00 1000.00 2120.00
  6250.00 1000.00 2000.00 6250.00 1000.00 2120.00
  6500.00 1000.00 2000.00 6500.00 1000.00 2120.00
  6750.00 1000.00 2000.00 6750.00 1000.00 2120.00
  7000.00 1000.00 2000.00 7000.00 1000.00 2120.00
  7250.00 1000.00 2000.00 7250.00 1000.00 2120.00
  7500.00 1000.00 2000.00 7500.00 1000.00 2120.00
  7750.00 1000.00 2000.00 7750.00 1000.00 2120.00
  8000.00 1000.00 2000.00 8000.00 1000.00 2120.00
  8250.00 1000.00 2000.00 8250.00 1000.00 2120.00
  8500.00 1000.00 2000.00 8500.00 1000.00 2120.00
  8750.00 1000.00 2000.00 8750.00 1000.00 2120.00
  9000.00 1000.00 2000.00 9000.00 1000.00 2120.00
  9250.00 1000.00 2000.00 9250.00 1000.00 2120.00
  9500.00 1000.00 2000.00 9500.00 1000.00 2120.00
  9750.00 1000.00 2000.00 9750.00 1000.00 2120.00
  10000.00 1000.00 2000.00 10000.00 1000.00 2120.00
  10250.00 1000.00 2000.00 10250.00 1000.00 2120.00
  0.00 1250.00 2000.00 0.00 1250.00 2120.00
  250.00 1250.00 2000.00 250.00 1250.00 2120.00
  500.00 1250.00 2000.00 500.00 1250.00 2120.00
  750.00 1250.00 2000.00 750.00 1250.00 2120.00
  1000.00 1250.00 2000.00 1000.00 1250.00 2120.00
  1250.00 1250.00 2000.00 1250.00 1250.00 2120.00
  1500.00 1250.00 2000.00 1500.00 1250.00 2120.00
  1750.00 1250.00 2000.00 1750.00 1250.00 2120.00
  2000.00 1250.00 2000.00 2000.00 1250.00 2120.00
  2250.00 1250.00 2000.00 2250.00 1250.00 2120.00
  2500.00 1250.00 2000.00 2500.00 1250.00 2120.00
  2750.00 1250.00 2000.00 2750.00 1250.00 2120.00
  3000.00 1250.00 2000.00 3000.00 1250.00 2120.00
  3250.00 1250.00 2000.00 3250.00 1250.00 2120.00
  3500.00 1250.00 2000.00 3500.00 1250.00 2120.00
  3750.00 1250.00 2000.00 3750.00 1250.00 2120.00
  4000.00 1250.00 2000.00 4000.00 1250.00 2120.00
  4250.00 1250.00 2000.00 4250.00 1250.00 2120.00
  4500.00 1250.00 2000.00 4500.00 1250.00 2120.00
  4750.00 1250.00 2000.00 4750.00 1250.00 2120.00
  5000.00 1250.00 2000.00 5000.00 1250.00 2120.00
  5250.00 1250.00 2000.00 5250.00 1250.00 2120.00
  5500.00 1250.00 2000.00 5500.00 1250.00 2120.00
  5750.00 1250.00 2000.00 5750.00 1250.00 2120.00
  6000.00 1250.00 2000.00 6000.00 1250.00 2120.00
  6250.00 1250.00 2000.00 6250.00 1250.00 2120.00
  6500.00 1250.00 2000.00 6500.00 1250.00 2120.00
  6750.00 1250.00 2000.00 6750.00 1250.00 2120.00
  7000.00 1250.00 2000.00 7000.00 1250.00 2120.00
  7250.00 1250.00 2000.00 7250.00 1250.00 2120.00
  7500.00 1250.00 2000.00 7500.00 1250.00 2120.00
  7750.00 1250.00 2000.00 7750.00 1250.00 2120.00
  8000.00 1250.00 2000.00 8000.00 1250.00 2120.00
  8250.00 1250.00 2000.00 8250.00 1250.00 2120.00
  8500.00 1250.00 2000.00 8500.00 1250.00 2120.00
  8750.00 1250.00 2000.00 8750.00 1250.00 2120.00
  9000.00 1250.00 2000.00 9000.00 1250.00 2120.00
  9250.00 1250.00 2000.00 9250.00 1250.00 2120.00
  9500.00 1250.00 2000.00 9500.00 1250.00 2120.00
  9750.00 1250.00 2000.00 9750.00 1250.00 2120.00
  10000.00 1250.00 2000.00 10000.00 1250.00 2120.00
  10250.00 1250.00 2000.00 10250.00 1250.00 2120.00
  0.00 1500.00 2000.00 0.00 1500.00 2120.00
  250.00 1500.00 2000.00 250.00 1500.00 2120.00
  500.00 1500.00 2000.00 500.00 1500.00 2120.00
  750.00 1500.00 2000.00 750.00 1500.00 2120.00
  1000.00 1500.00 2000.00 1000.00 1500.00 2120.00
  1250.00 1500.00 2000.00 1250.00 1500.00 2120.00
  1500.00 1500.00 2000.00 1500.00 1500.00 2120.00
  1750.00 1500.00 2000.00 1750.00 1500.00 2120.00
  2000.00 1500.00 2000.00 2000.00 1500.00 2120.00
  2250.00 1500.00 2000.00 2250.00 1500.00 2120.00
  2500.00 1500.00 2000.00 2500.00 1500.00 2120.00
  2750.00 1500.00 2000.00 2750.00 1500.00 2120.00
  3000.00 1500.00 2000.00 3000.00 1500.00 2120.00
  3250.00 1500.00 2000.00 3250.00 1500.00 2120.00
  3500.00 1500.00 2000.00 3500.00 1500.00 2120.00
  3750.00 1500.00 2000.00 3750.00 1500.00 2120.00
  4000.00 1500.00 2000.00 4000.00 1500.00 2120.00
  4250.00 1500.00 2000.00 4250.00 1500.00 2120.00
  4500.00 1500.00 2000.00 4500.00 1500.00 2120.00
  4750.00 1500.00 2000.00 4750.00 1500.00 2120.00
  5000.00 1500.00 2000.00 5000.00 1500.00 2120.00
  5250.00 1500.00 2000.00 5250.00 1500.00 2120.00
  5500.00 1500.00 2000.00 5500.00 1500.00 2120.00
  5750.00 1500.00 2000.00 5750.00 1500.00 2120.00
  6000.00 1500.00 2000.00 6000.00 1500.00 2120.00
  6250.00 1500.00 2000.00 6250.00 1500.00 2120.00
  6500.00 1500.00 2000.00 6500.00 1500.00 2120.00
  6750.00 1500.00 2000.00 6750.00 1500.00 2120.00
  7000.00 1500.00 2000.00 7000.00 1500.00 2120.00
  7250.00 1500.00 2000.00 7250.00 1500.00 2120.00
  7500.00 1500.00 2000.00 7500.00 1500.00 2120.00
  7750.00 1500.00 2000.00 7750.00 1500.00 2120.00
  8000.00 1500.00 2000.00 8000.00 1500.00 2120.00
  8250.00 1500.00 2000.00 8250.00 1500.00 2120.00
  8500.00 1500.00 2000.00 8500.00 1500.00 2120.00
  8750.00 1500.00 2000.00 8750.00 1500.00 2120.00
  9000.00 1500.00 2000.00 9000.00 1500.00 2120.00
  9250.00 1500.00 2000.00 9250.00 1500.00 2120.00
  9500.00 1500.00 2000.00 9500.00 1500.00 2120.00
  9750.00 1500.00 2000.00 9750.00 1500.00 2120.00
  10000.00 1500.00 2000.00 10000.00 1500.00 2120.00
  10250.00 1500.00 2000.00 10250.00 1500.00 2120.00
  0.00 1750.00 2000.00 0.00 1750.00 2120.00
  250.00 1750.00 2000.00 250.00 1750.00 2120.00
  500.00 1750.00 2000.00 500.00 1750.00 2120.00
  750.00 1750.00 2000.00 750.00 1750.00 2120.00
  1000.00 1750.00 2000.00 1000.00 1750.00 2120.00
  1250.00 1750.00 2000.00 1250.00 1750.00 2120.00
  1500.00 1750.00 2000.00 1500.00 1750.00 2120.00
  1750.00 1750.00 2000.00 1750.00 1750.00 2120.00
  2000.00 1750.00 2000.00 2000.00 1750.00 2120.00
  2250.00 1750.00 2000.00 2250.00 1750.00 2120.00
  2500.00 1750.00 2000.00 2500.00 1750.00 2120.00
  2750.00 1750.00 2000.00 2750.00 1750.00 2120.00
  3000.00 1750.00 2000.00 3000.00 1750.00 2120.00
  3250.00 1750.00 2000.00 3250.00 1750.00 2120.00
  3500.00 1750.00 2000.00 3500.00 1750.00 2120.00
  3750.00 1750.00 2000.00 3750.00 1750.00 2120.00
  4000.00 1750.00 2000.00 4000.00 1750.00 2120.00
  4250.00 1750.00 2000.00 4250.00 1750.00 2120.00
  4500.00 1750.00 2000.00 4500.00 1750.00 2120.00
  4750.00 1750.00 2000.00 4750.00 1750.00 2120.00
  5000.00 1750.00 2000.00 5000.00 1750.00 2120.00
  5250.00 1750.00 2000.00 5250.00 1750.00 2120.00
  5500.00 1750.00 2000.00 5500.00 1750.00 2120.00
  5750.00 1750.00 2000.00 5750.00 1750.00 2120.00
  6000.00 1750.00 2000.00 6000.00 1750.00 2120.00
  6250.00 1750.00 2000.00 6250.00 1750.00 2120.00
  6500.00 1750.00 2000.00 6500.00 1750.00 2120.00
  6750.00 1750.00 2000.00 6750.00 1750.00 2120.00
  7000.00 1750.00 2000.00 7000.00 1750.00 2120.00
  7250.00 1750.00 2000.00 7250.00 1750.00 2120.00
  7500.00 1750.00 2000.00 7500.00 1750.00 2120.00
  7750.00 1750.00 2000.00 7750.00 1750.00 2120.00
  8000.00 1750.00 2000.00 8000.00 1750.00 2120.00
  8250.00 1750.00 2000.00 8250.00 1750.00 2120.00
  8500.00 1750.00 2000.00 8500.00 1750.00 2120.00
  8750.00 1750.00 2000.00 8750.00 1750.00 2120.00
  9000.00 1750.00 2000.00 9000.00 1750.00 2120.00
  9250.00 1750.00 2000.00 9250.00 1750.00 2120.00
  9500.00 1750.00 2000.00 9500.00 1750.00 2120.00
  9750.00 1750.00 2000.00 9750.00 1750.00 2120.00
  10000.00 1750.00 2000.00 10000.00 1750.00 2120.00
  10250.00 1750.00 2000.00 10250.00 1750.00 2120.00
  0.00 2000.00 2000.00 0.00 2000.00 2120.00
  250.00 2000.00 2000.00 250.00 2000.00 2120.00
  500.00 2000.00 2000.00 500.00 2000.00 2120.00
  750.00 2000.00 2000.00 750.00 2000.00 2120.00
  1000.00 2000.00 2000.00 1000.00 2000.00 2120.00
  1250.00 2000.00 2000.00 1250.00 2000.00 2120.00
  1500.00 2000.00 2000.00 1500.00 2000.00 2120.00
  1750.00 2000.00 2000.00 1750.00 2000.00 2120.00
  2000.00 2000.00 2000.00 2000.00 2000.00 2120.00
  2250.00 2000.00 2000.00 2250.00 2000.00 2120.00
  2500.00 2000.00 2000.00 2500.00 2000.00 2120.00
  2750.00 2000.00 2000.00 2750.00 2000.00 2120.00
  3000.00 2000.00 2000.00 3000.00 2000.00 2120.00
  3250.00 2000.00 2000.00 3250.00 2000.00 2120.00
  3500.00 2000.00 2000.00 3500.00 2000.00 2120.00
  3750.00 2000.00 2000.00 3750.00 2000.00 2120.00
  4000.00 2000.00 2000.00 4000.00 2000.00 2120.00
  4250.00 2000.00 2000.00 4250.00 2000.00 2120.00
  4500.00 2000.00 2000.00 4500.00 2000.00 2120.00
  4750.00 2000.00 2000.00 4750.00 2000.00 2120.00
  5000.00 2000.00 2000.00 5000.00 2000.00 2120.00
  5250.00 2000.00 2000.00 5250.00 2000.00 2120.00
  5500.00 2000.00 2000.00 5500.00 2000.00 2120.00
  5750.00 2000.00 2000.00 5750.00 2000.00 2120.00
  6000.00 2000.00 2000.00 6000.00 2000.00 2120.00
  6250.00 2000.00 2000.00 6250.00 2000.00 2120.00
  6500.00 2000.00 2000.00 6500.00 2000.00 2120.00
  6750.00 2000.00 2000.00 6750.00 2000.00 2120.00
  7000.00 2000.00 2000.00 7000.00 2000.00 2120.00
  7250.00 2000.00 2000.00 7250.00 2000.00 2120.00
  7500.00 2000.00 2000.00 7500.00 2000.00 2120.00
  7750.00 2000.00 2000.00 7750.00 2000.00 2120.00
  8000.00 2000.00 2000.00 8000.00 2000.00 2120.00
  8250.00 2000.00 2000.00 8250.00 2000.00 2120.00
  8500.00 2000.00 2000.00 8500.00 2000.00 2120.00
  8750.00 2000.00 2000.00 8750.00 2000.00 2120.00
  9000.00 2000.00 2000.00 9000.00 2000.00 2120.00
  9250.00 2000.00 2000.00 9250.00 2000.00 2120.00
  9500.00 2000.00 2000.00 9500.00 2000.00 2120.00
  9750.00 2000.00 2000.00 9750.00 2000.00 2120.00
  10000.00 2000.00 2000.00 10000.00 2000.00 2120.00
  10250.00 2000.00 2000.00 10250.00 2000.00 2120.00
  0.00 2250.00 2000.00 0.00 2250.00 2120.00
  250.00 2250.00 2000.00 250.00 2250.00 2120.00
  500.00 2250.00 2000.00 500.00 2250.00 2120.00
  750.00 2250.00 2000.00 750.00 2250.00 2120.00
  1000.00 2250.00 2000.00 1000.00 2250.00 2120.00
  1250.00 2250.00 2000.00 1250.00 2250.00 2120.00
  1500.00 2250.00 2000.00 1500.00 2250.00 2120.00
  1750.00 2250.00 2000.00 1750.00 2250.00 2120.00
  2000.00 2250.00 2000.00 2000.00 2250.00 2120.00
  2250.00 2250.00 2000.00 2250.00 2250.00 2120.00
  2500.00 2250.00 2000.00 2500.00 2250.00 2120.00
  2750.00 2250.00 2000.00 2750.00 2250.00 2120.00
  3000.00 2250.00 2000.00 3000.00 2250.00 2120.00
  3250.00 2250.00 2000.00 3250.00 2250.00 2120.00
  3500.00 2250.00 2000.00 3500.00 2250.00 2120.00
  3750.00 2250.00 2000.00 3750.00 2250.00 2120.00
  4000.00 2250.00 2000.00 4000.00 2250.00 2120.00
  4250.00 2250.00 2000.00 4250.00 2250.00 2120.00
  4500.00 2250.00 2000.00 4500.00 2250.00 2120.00
  4750.00 2250.00 2000.00 4750.00 2250.00 2120.00
  5000.00 2250.00 2000.00 5000.00 2250.00 2120.00
  5250.00 2250.00 2000.00 5250.00 2250.00 2120.00
  5500.00 2250.00 2000.00 5500.00 2250.00 2120.00
  5750.00 2250.00 2000.00 5750.00 2250.00 2120.00
  6000.00 2250.00 2000.00 6000.00 2250.00 2120.00
  6250.00 2250.00 2000.00 6250.00 2250.00 2120.00
  6500.00 2250.00 2000.00 6500.00 2250.00 2120.00
  6750.00 2250.00 2000.00 6750.00 2250.00 2120.00
  7000.00 2250.00 2000.00 7000.00 2250.00 2120.00
  7250.00 2250.00 2000.00 7250.00 2250.00 2120.00
  7500.00 2250.00 2000.00 7500.00 2250.00 2120.00
  7750.00 2250.00 2000.00 7750.00 2250.00 2120.00
  8000.00 2250.00 2000.00 8000.00 2250.00 2120.00
  8250.00 2250.00 2000.00 8250.00 2250.00 2120.00
  8500.00 2250.00 2000.00 8500.00 2250.00 2120.00
  8750.00 2250.00 2000.00 8750.00 2250.00 2120.00
  9000.00 2250.00 2000.00 9000.00 2250.00 2120.00
  9250.00 2250.00 2000.00 9250.00 2250.00 2120.00
  9500.00 2250.00 2000.00 9500.00 2250.00 2120.00
  9750.00 2250.00 2000.00 9750.00 2250.00 2120.00
  10000.00 2250.00 2000.00 10000.00 2250.00 2120.00
  10250.00 2250.00 2000.00 10250.00 2250.00 2120.00
  0.00 2500.00 2000.00 0.00 2500.00 2120.00
  250.00 2500.00 2000.00 250.00 2500.00 2120.00
  500.00 2500.00 2000.00 500.00 2500.00 2120.00
  750.00 2500.00 2000.00 750.00 2500.00 2120.00
  1000.00 2500.00 2000.00 1000.00 2500.00 2120.00
  1250.00 2500.00 2000.00 1250.00 2500.00 2120.00
  1500.00 2500.00 2000.00 1500.00 2500.00 2120.00
  1750.00 2500.00 2000.00 1750.00 2500.00 2120.00
  2000.00 2500.00 2000.00 2000.00 2500.00 2120.00
  2250.00 2500.00 2000.00 2250.00 2500.00 2120.00
  2500.00 2500.00 2000.00 2500.00 2500.00 2120.00
  2750.00 2500.00 2000.00 2750.00 2500.00 2120.00
  3000.00 2500.00 2000.00 3000.00 2500.00 2120.00
  3250.00 2500.00 2000.00 3250.00 2500.00 2120.00
  3500.00 2500.00 2000.00 3500.00 2500.00 2120.00
  3750.00 2500.00 2000.00 3750.00 2500.00 2120.00
  4000.00 2500.00 2000.00 4000.00 2500.00 2120.00
  4250.00 2500.00 2000.00 4250.00 2500.00 2120.00
  4500.00 2500.00 2000.00 4500.00 2500.00 2120.00
  4750.00 2500.00 2000.00 4750.00 2500.00 2120.00
  5000.00 2500.00 2000.00 5000.00 2500.00 2120.00
  5250.00 2500.00 2000.00 5250.00 2500.00 2120.00
  5500.00 2500.00 2000.00 5500.00 2500.00 2120.00
  5750.00 2500.00 2000.00 5750.00 2500.00 2120.00
  6000.00 2500.00 2000.00 6000.00 2500.00 2120.00
  6250.00 2500.00 2000.00 6250.00 2500.00 2120.00
  6500.00 2500.00 2000.00 6500.00 2500.00 2120.00
  6750.00 2500.00 2000.00 6750.00 2500.00 2120.00
  7000.00 2500.00 2000.00 7000.00 2500.00 2120.00
  7250.00 2500.00 2000.00 7250.00 2500.00 2120.00
  7500.00 2500.00 2000.00 7500.00 2500.00 2120.00
  7750.00 2500.00 2000.00 7750.00 2500.00 2120.00
  8000.00 2500.00 2000.00 8000.00 2500.00 2120.00
  8250.00 2500.00 2000.00 8250.00 2500.00 2120.00
  8500.00 2500.00 2000.00 8500.00 2500.00 2120.00
  8750.00 2500.00 2000.00 8750.00 2500.00 2120.00
  9000.00 2500.00 2000.00 9000.00 2500.00 2120.00
  9250.00 2500.00 2000.00 9250.00 2500.00 2120.00
  9500.00 2500.00 2000.00 9500.00 2500.00 2120.00
  9750.00 2500.00 2000.00 9750.00 2500.00 2120.00
  10000.00 2500.00 2000.00 10000.00 2500.00 2120.00
  10250.00 2500.00 2000.00 10250.00 2500.00 2120.00
  0.00 2750.00 2000.00 0.00 2750.00 2120.00
  250.00 2750.00 2000.00 250.00 2750.00 2120.00
  500.00 2750.00 2000.00 500.00 2750.00 2120.00
  750.00 2750.00 2000.00 750.00 2750.00 2120.00
  1000.00 2750.00 2000.00 1000.00 2750.00 2120.00
  1250.00 2750.00 2000.00 1250.00 2750.00 2120.00
  1500.00 2750.00 2000.00 1500.00 2750.00 2120.00
  1750.00 2750.00 2000.00 1750.00 2750.00 2120.00
  2000.00 2750.00 2000.00 2000.00 2750.00 2120.00
  2250.00 2750.00 2000.00 2250.00 2750.00 2120.00
  2500.00 2750.00 2000.00 2500.00 2750.00 2120.00
  2750.00 2750.00 2000.00 2750.00 2750.00 2120.00
  3000.00 2750.00 2000.00 3000.00 2750.00 2120.00
  3250.00 2750.00 2000.00 3250.00 2750.00 2120.00
  3500.00 2750.00 2000.00 3500.00 2750.00 2120.00
  3750.00 2750.00 2000.00 3750.00 2750.00 2120.00
  4000.00 2750.00 2000.00 4000.00 2750.00 2120.00
  4250.00 2750.00 2000.00 4250.00 2750.00 2120.00
  4500.00 2750.00 2000.00 4500.00 2750.00 2120.00
  4750.00 2750.00 2000.00 4750.00 2750.00 2120.00
  5000.00 2750.00 2000.00 5000.00 2750.00 2120.00
  5250.00 2750.00 2000.00 5250.00 2750.00 2120.00
  5500.00 2750.00 2000.00 5500.00 2750.00 2120.00
  5750.00 2750.00 2000.00 5750.00 2750.00 2120.00
  6000.00 2750.00 2000.00 6000.00 2750.00 2120.00
  6250.00 2750.00 2000.00 6250.00 2750.00 2120.00
  6500.00 2750.00 2000.00 6500.00 2750.00 2120.00
  6750.00 2750.00 2000.00 6750.00 2750.00 2120.00
  7000.00 2750.00 2000.00 7000.00 2750.00 2120.00
  7250.00 2750.00 2000.00 7250.00 2750.00 2120.00
  7500.00 2750.00 2000.00 7500.00 2750.00 2120.00
  7750.00 2750.00 2000.00 7750.00 2750.00 2120.00
  8000.00 2750.00 2000.00 8000.00 2750.00 2120.00
  8250.00 2750.00 2000.00 8250.00 2750.00 2120.00
  8500.00 2750.00 2000.00 8500.00 2750.00 2120.00
  8750.00 2750.00 2000.00 8750.00 2750.00 2120.00
  9000.00 2750.00 2000.00 9000.00 2750.00 2120.00
  9250.00 2750.00 2000.00 9250.00 2750.00 2120.00
  9500.00 2750.00 2000.00 9500.00 2750.00 2120.00
  9750.00 2750.00 2000.00 9750.00 2750.00 2120.00
  10000.00 2750.00 2000.00 10000.00 2750.00 2120.00
  10250.00 2750.00 2000.00 10250.00 2750.00 2120.00
  0.00 3000.00 2000.00 0.00 3000.00 2120.00
  250.00 3000.00 2000.00 250.00 3000.00 2120.00
  500.00 3000.00 2000.00 500.00 3000.00 2120.00
  750.00 3000.00 2000.00 750.00 3000.00 2120.00
  1000.00 3000.00 2000.00 1000.00 3000.00 2120.00
  1250.00 3000.00 2000.00 1250.00 3000.00 2120.00
  1500.00 3000.00 2000.00 1500.00 3000.00 2120.00
  1750.00 3000.00 2000.00 1750.00 3000.00 2120.00
  2000.00 3000.00 2000.00 2000.00 3000.00 2120.00
  2250.00 3000.00 2000.00 2250.00 3000.00 2120.00
  2500.00 3000.00 2000.00 2500.00 3000.00 2120.00
  2750.00 3000.00 2000.00 2750.00 3000.00 2120.00
  3000.00 3000.00 2000.00 3000.00 3000.00 2120.00
  3250.00 3000.00 2000.00 3250.00 3000.00 2120.00
  3500.00 3000.00 2000.00 3500.00 3000.00 2120.00
  3750.00 3000.00 2000.00 3750.00 3000.00 2120.00
  4000.00 3000.00 2000.00 4000.00 3000.00 2120.00
  4250.00 3000.00 2000.00 4250.00 3000.00 2120.00
  4500.00 3000.00 2000.00 4500.00 3000.00 2120.00
  4750.00 3000.00 2000.00 4750.00 3000.00 2120.00
  5000.00 3000.00 2000.00 5000.00 3000.00 2120.00
  5250.00 3000.00 2000.00 5250.00 3000.00 2120.00
  5500.00 3000.00 2000.00 5500.00 3000.00 2120.00
  5750.00 3000.00 2000.00 5750.00 3000.00 2120.00
  6000.00 3000.00 2000.00 6000.00 3000.00 2120.00
  6250.00 3000.00 2000.00 6250.00 3000.00 2120.00
  6500.00 3000.00 2000.00 6500.00 3000.00 2120.00
  6750.00 3000.00 2000.00 6750.00 3000.00 2120.00
  7000.00 3000.00 2000.00 7000.00 3000.00 2120.00
  7250.00 3000.00 2000.00 7250.00 3000.00 2120.00
  7500.00 3000.00 2000.00 7500.00 3000.00 2120.00
  7750.00 3000.00 2000.00 7750.00 3000.00 2120.00
  8000.00 3000.00 2000.00 8000.00 3000.00 2120.00
  8250.00 3000.00 2000.00 8250.00 3000.00 2120.00
  8500.00 3000.00 2000.00 8500.00 3000.00 2120.00
  8750.00 3000.00 2000.00 8750.00 3000.00 2120.00
  9000.00 3000.00 2000.00 9000.00 3000.00 2120.00
  9250.00 3000.00 2000.00 9250.00 3000.00 2120.00
  9500.00 3000.00 2000.00 9500.00 3000.00 2120.00
  9750.00 3000.00 2000.00 9750.00 3000.00 2120.00
  10000.00 3000.00 2000.00 10000.00 3000.00 2120.00
  10250.00 3000.00 2000.00 10250.00 3000.00 2120.00
  0.00 3250.00 2000.00 0.00 3250.00 2120.00
  250.00 3250.00 2000.00 250.00 3250.00 2120.00
  500.00 3250.00 2000.00 500.00 3250.00 2120.00
  750.00 3250.00 2000.00 750.00 3250.00 2120.00
  1000.00 3250.00 2000.00 1000.00 3250.00 2120.00
  1250.00 3250.00 2000.00 1250.00 3250.00 2120.00
  1500.00 3250.00 2000.00 1500.00 3250.00 2120.00
  1750.00 3250.00 2000.00 1750.00 3250.00 2120.00
  2000.00 3250.00 2000.00 2000.00 3250.00 2120.00
  2250.00 3250.00 2000.00 2250.00 3250.00 2120.00
  2500.00 3250.00 2000.00 2500.00 3250.00 2120.00
  2750.00 3250.00 2000.00 2750.00 3250.00 2120.00
  3000.00 3250.00 2000.00 3000.00 3250.00 2120.00
  3250.00 3250.00 2000.00 3250.00 3250.00 2120.00
  3500.00 3250.00 2000.00 3500.00 3250.00 2120.00
  3750.00 3250.00 2000.00 3750.00 3250.00 2120.00
  4000.00 3250.00 2000.00 4000.00 3250.00 2120.00
  4250.00 3250.00 2000.00 4250.00 3250.00 2120.00
  4500.00 3250.00 2000.00 4500.00 3250.00 2120.00
  4750.00 3250.00 2000.00 4750.00 3250.00 2120.00
  5000.00 3250.00 2000.00 5000.00 3250.00 2120.00
  5250.00 3250.00 2000.00 5250.00 3250.00 2120.00
  5500.00 3250.00 2000.00 5500.00 3250.00 2120.00
  5750.00 3250.00 2000.00 5750.00 3250.00 2120.00
  6000.00 3250.00 2000.00 6000.00 3250.00 2120.00
  6250.00 3250.00 2000.00 6250.00 3250.00 2120.00
  6500.00 3250.00 2000.00 6500.00 3250.00 2120.00
  6750.00 3250.00 2000.00 6750.00 3250.00 2120.00
  7000.00 3250.00 2000.00 7000.00 3250.00 2120.00
  7250.00 3250.00 2000.00 7250.00 3250.00 2120.00
  7500.00 3250.00 2000.00 7500.00 3250.00 2120.00
  7750.00 3250.00 2000.00 7750.00 3250.00 2120.00
  8000.00 3250.00 2000.00 8000.00 3250.00 2120.00
  8250.00 3250.00 2000.00 8250.00 3250.00 2120.00
  8500.00 3250.00 2000.00 8500.00 3250.00 2120.00
  8750.00 3250.00 2000.00 8750.00 3250.00 2120.00
  9000.00 3250.00 2000.00 9000.00 3250.00 2120.00
  9250.00 3250.00 2000.00 9250.00 3250.00 2120.00
  9500.00 3250.00 2000.00 9500.00 3250.00 2120.00
  9750.00 3250.00 2000.00 9750.00 3250.00 2120.00
  10000.00 3250.00 2000.00 10000.00 3250.00 2120.00
  10250.00 3250.00 2000.00 10250.00 3250.00 2120.00
  0.00 3500.00 2000.00 0.00 3500.00 2120.00
  250.00 3500.00 2000.00 250.00 3500.00 2120.00
  500.00 3500.00 2000.00 500.00 3500.00 2120.00
  750.00 3500.00 2000.00 750.00 3500.00 2120.00
  1000.00 3500.00 2000.00 1000.00 3500.00 2120.00
  1250.00 3500.00 2000.00 1250.00 3500.00 2120.00
  1500.00 3500.00 2000.00 1500.00 3500.00 2120.00
  1750.00 3500.00 2000.00 1750.00 3500.00 2120.00
  2000.00 3500.00 2000.00 2000.00 3500.00 2120.00
  2250.00 3500.00 2000.00 2250.00 3500.00 2120.00
  2500.00 3500.00 2000.00 2500.00 3500.00 2120.00
  2750.00 3500.00 2000.00 2750.00 3500.00 2120.00
  3000.00 3500.00 2000.00 3000.00 3500.00 2120.00
  3250.00 3500.00 2000.00 3250.00 3500.00 2120.00
  3500.00 3500.00 2000.00 3500.00 3500.00 2120.00
  3750.00 3500.00 2000.00 3750.00 3500.00 2120.00
  4000.00 3500.00 2000.00 4000.00 3500.00 2120.00
  4250.00 3500.00 2000.00 4250.00 3500.00 2120.00
  4500.00 3500.00 2000.00 4500.00 3500.00 2120.00
  4750.00 3500.00 2000.00 4750.00 3500.00 2120.00
  5000.00 3500.00 2000.00 5000.00 3500.00 2120.00
  5250.00 3500.00 2000.00 5250.00 3500.00 2120.00